# Part of the Crystallography Open Database
# All data on this site have been placed in the public domain by the
# contributors.
#------------------------------------------------------------------------------
#$Date: 2010-06-10 15:11:07 +0000 (Thu, 10 Jun 2010) $
#$Revision: 1210 $
#$URL: svn://cod.ibt.lt/cod/cif/9/9009085.cif $
#------------------------------------------------------------------------------
#
# This file is available in the Crystallography Open Database (COD),
# http://www.crystallography.net/. The original data for this entry
# were provided the American Mineralogist Crystal Structure Database,
# http://rruff.geo.arizona.edu/AMS/amcsd.php
#
# The file may be used within the scientific community so long as
# proper attribution is given to the journal article from which the
# data were obtained.
#
data_9009085
loop_
_publ_author_name
'Wyckoff, R. W. G.'
_publ_section_title
;
 Second edition. Interscience Publishers, New York, New York
 Note: distorted rutile structure
;
_journal_name_full               'Crystal Structures'
_journal_page_first              239
_journal_page_last               444
_journal_volume                  1
_journal_year                    1963
_chemical_formula_sum            'Cl2 Cr'
_chemical_name_mineral           CrCl2
_space_group_IT_number           58
_symmetry_space_group_name_Hall  '-P 2 2n'
_symmetry_space_group_name_H-M   'P n n m'
_cell_angle_alpha                90
_cell_angle_beta                 90
_cell_angle_gamma                90
_cell_length_a                   5.974
_cell_length_b                   6.624
_cell_length_c                   3.488
_cell_volume                     138.026
_exptl_crystal_density_diffrn    2.957
_[local]_cod_chemical_formula_sum_orig 'Cr Cl2'
_cod_database_code               9009085
_amcsd_database_code             AMCSD#0011417
loop_
_symmetry_equiv_pos_as_xyz
x,y,z
1/2+x,1/2-y,1/2+z
1/2-x,1/2+y,1/2-z
1/2-x,1/2+y,1/2+z
1/2+x,1/2-y,1/2-z
x,y,-z
-x,-y,z
-x,-y,-z
loop_
_atom_site_label
_atom_site_fract_x
_atom_site_fract_y
_atom_site_fract_z
Cr 0.00000 0.00000 0.00000
Cl 0.27800 0.36200 0.00000
