# Part of the Crystallography Open Database
# All data on this site have been placed in the public domain by the
# contributors.
#------------------------------------------------------------------------------
#$Date: 2010-06-10 15:11:07 +0000 (Thu, 10 Jun 2010) $
#$Revision: 1210 $
#$URL: svn://cod.ibt.lt/cod/cif/9/9009176.cif $
#------------------------------------------------------------------------------
#
# This file is available in the Crystallography Open Database (COD),
# http://www.crystallography.net/. The original data for this entry
# were provided the American Mineralogist Crystal Structure Database,
# http://rruff.geo.arizona.edu/AMS/amcsd.php
#
# The file may be used within the scientific community so long as
# proper attribution is given to the journal article from which the
# data were obtained.
#
data_9009176
loop_
_publ_author_name
'Wyckoff, R. W. G.'
_publ_section_title
;
 Second edition. Interscience Publishers, New York, New York
 Note: tetragonal PbFCl structure
;
_journal_name_full               'Crystal Structures'
_journal_page_first              294
_journal_page_last               296
_journal_volume                  1
_journal_year                    1963
_chemical_formula_sum            'Cl F Pb'
_chemical_name_mineral           Matlockite
_space_group_IT_number           129
_symmetry_space_group_name_Hall  'P 4ab 2ab -1ab'
_symmetry_space_group_name_H-M   'P 4/n m m :1'
_cell_angle_alpha                90
_cell_angle_beta                 90
_cell_angle_gamma                90
_cell_length_a                   4.106
_cell_length_b                   4.106
_cell_length_c                   7.23
_cell_volume                     121.892
_exptl_crystal_density_diffrn    7.129
_[local]_cod_cif_authors_sg_H-M  'P 4/n m m'
_[local]_cod_chemical_formula_sum_orig 'Pb F Cl'
_cod_database_code               9009176
_amcsd_database_code             AMCSD#0011508
loop_
_symmetry_equiv_pos_as_xyz
x,y,z
1/2-y,1/2-x,z
y,x,-z
y,-x,-z
1/2-y,1/2+x,z
x,-y,z
1/2-x,1/2+y,-z
1/2+x,1/2+y,-z
-x,-y,z
1/2+y,1/2+x,z
-y,-x,-z
-y,x,-z
1/2+y,1/2-x,z
-x,y,z
1/2+x,1/2-y,-z
1/2-x,1/2-y,-z
loop_
_atom_site_label
_atom_site_fract_x
_atom_site_fract_y
_atom_site_fract_z
Pb 0.00000 0.50000 0.20000
F 0.00000 0.00000 0.00000
Cl 0.00000 0.50000 0.65000
