# Part of the Crystallography Open Database
# All data on this site have been placed in the public domain by the
# contributors.
#------------------------------------------------------------------------------
#$Date: 2010-06-10 15:11:07 +0000 (Thu, 10 Jun 2010) $
#$Revision: 1210 $
#$URL: svn://cod.ibt.lt/cod/cif/9/9008570.cif $
#------------------------------------------------------------------------------
#
# This file is available in the Crystallography Open Database (COD),
# http://www.crystallography.net/. The original data for this entry
# were provided the American Mineralogist Crystal Structure Database,
# http://rruff.geo.arizona.edu/AMS/amcsd.php
#
# The file may be used within the scientific community so long as
# proper attribution is given to the journal article from which the
# data were obtained.
#
data_9008570
loop_
_publ_author_name
'Wyckoff, R. W. G.'
_publ_section_title
;
 Second edition. Interscience Publishers, New York, New York
 Sample known as white tin
;
_journal_name_full               'Crystal Structures'
_journal_page_first              7
_journal_page_last               83
_journal_volume                  1
_journal_year                    1963
_chemical_formula_sum            Sn
_chemical_name_mineral           Tin
_space_group_IT_number           141
_symmetry_space_group_name_Hall  'I 4bw 2bw -1bw'
_symmetry_space_group_name_H-M   'I 41/a m d :1'
_cell_angle_alpha                90
_cell_angle_beta                 90
_cell_angle_gamma                90
_cell_length_a                   5.8197
_cell_length_b                   5.8197
_cell_length_c                   3.17488
_cell_volume                     107.530
_exptl_crystal_density_diffrn    7.333
_[local]_cod_cif_authors_sg_H-M  'I 41/a m d'
_cod_database_code               9008570
_amcsd_database_code             AMCSD#0010901
loop_
_symmetry_equiv_pos_as_xyz
x,y,z
1/2+x,1/2+y,1/2+z
-y,1/2-x,1/4+z
1/2-y,-x,3/4+z
1/2+y,1/2+x,1/2-z
+y,+x,-z
1/2+y,1/2-x,1/2-z
+y,-x,-z
-y,1/2+x,1/4+z
1/2-y,+x,3/4+z
1/2+x,1/2-y,1/2+z
+x,-y,+z
1/2-x,y,3/4-z
-x,1/2+y,1/4-z
1/2+x,y,3/4-z
+x,1/2+y,1/4-z
1/2-x,1/2-y,1/2+z
-x,-y,+z
1/2+y,x,3/4+z
+y,1/2+x,1/4+z
-y,-x,-z
1/2-y,1/2-x,1/2-z
-y,x,-z
1/2-y,1/2+x,1/2-z
1/2+y,-x,3/4+z
+y,1/2-x,1/4+z
-x,y,z
1/2-x,1/2+y,1/2+z
x,1/2-y,1/4-z
1/2+x,-y,3/4-z
-x,1/2-y,1/4-z
1/2-x,-y,3/4-z
loop_
_atom_site_label
_atom_site_fract_x
_atom_site_fract_y
_atom_site_fract_z
Sn 0.00000 0.00000 0.00000
